ITEM: TIMESTEP
3000
ITEM: NUMBER OF ATOMS
6750
ITEM: BOX BOUNDS pp pp ff
0 32.2436
0 34.3677
-223 223
ITEM: ATOMS id type xs ys zs
4255 9 0 0 0.366241
4603 9 0.230769 0.25 0.364895
4591 9 0.153846 0.25 0.364895
4579 9 0.0769231 0.25 0.364895
4567 9 0 0.25 0.364895
4448 9 0.230769 0.166666 0.364895
4447 9 0.230769 0.125 0.364895
4438 9 0.192308 0.229166 0.364895
4437 9 0.192308 0.1875 0.364895
4436 9 0.153846 0.166666 0.364895
4435 9 0.153846 0.125 0.364895
4426 9 0.115385 0.229166 0.364895
4425 9 0.115385 0.1875 0.364895
4424 9 0.0769231 0.166666 0.364895
4423 9 0.0769231 0.125 0.364895
4414 9 0.0384615 0.229166 0.364895
4413 9 0.0384615 0.1875 0.364895
4412 9 0 0.166666 0.364895
4411 9 0 0.125 0.364895
4292 9 0.230769 0.0416662 0.364895
4291 9 0.230769 0 0.364895
4282 9 0.192308 0.104166 0.364895
4281 9 0.192308 0.0625 0.364895
4280 9 0.153846 0.0416662 0.364895
4279 9 0.153846 0 0.364895
4270 9 0.115385 0.104166 0.364895
4269 9 0.115385 0.0625 0.364895
4268 9 0.0769231 0.0416662 0.364895
4267 9 0.0769231 0 0.364895
4258 9 0.0384615 0.104166 0.364895
4257 9 0.0384615 0.0625 0.364895
4256 9 0 0.0416662 0.364895
4639 9 0.461538 0.25 0.364895
4627 9 0.384615 0.25 0.364895
4615 9 0.307692 0.25 0.364895
4486 9 0.5 0.229166 0.364895
4485 9 0.5 0.1875 0.364895
4484 9 0.461538 0.166666 0.364895
4483 9 0.461538 0.125 0.364895
4474 9 0.423077 0.229166 0.364895
4473 9 0.423077 0.1875 0.364895
4472 9 0.384615 0.166666 0.364895
4471 9 0.384615 0.125 0.364895
4462 9 0.346154 0.229166 0.364895
4461 9 0.346154 0.1875 0.364895
4460 9 0.307692 0.166666 0.364895
4459 9 0.307692 0.125 0.364895
4450 9 0.269231 0.229166 0.364895
4449 9 0.269231 0.1875 0.364895
4330 9 0.5 0.104166 0.364895
4329 9 0.5 0.0625 0.364895
4328 9 0.461538 0.0416662 0.364895
4327 9 0.461538 0 0.364895
4318 9 0.423077 0.104166 0.364895
4317 9 0.423077 0.0625 0.364895
4316 9 0.384615 0.0416662 0.364895
4315 9 0.384615 0 0.364895
4306 9 0.346154 0.104166 0.364895
4305 9 0.346154 0.0625 0.364895
4304 9 0.307692 0.0416662 0.364895
4303 9 0.307692 0 0.364895
4294 9 0.269231 0.104166 0.364895
4293 9 0.269231 0.0625 0.364895
4675 9 0.692308 0.25 0.364895
4663 9 0.615385 0.25 0.364895
4651 9 0.538462 0.25 0.364895
4522 9 0.730769 0.229166 0.364895
4521 9 0.730769 0.1875 0.364895
4520 9 0.692308 0.166666 0.364895
4519 9 0.692308 0.125 0.364895
4510 9 0.653846 0.229166 0.364895
4509 9 0.653846 0.1875 0.364895
4508 9 0.615385 0.166666 0.364895
4507 9 0.615385 0.125 0.364895
4498 9 0.576923 0.229166 0.364895
4497 9 0.576923 0.1875 0.364895
4496 9 0.538462 0.166666 0.364895
4495 9 0.538462 0.125 0.364895
4366 9 0.730769 0.104166 0.364895
4365 9 0.730769 0.0625 0.364895
4364 9 0.692308 0.0416662 0.364895
4363 9 0.692308 0 0.364895
4354 9 0.653846 0.104166 0.364895
4353 9 0.653846 0.0625 0.364895
4352 9 0.615385 0.0416662 0.364895
4351 9 0.615385 0 0.364895
4342 9 0.576923 0.104166 0.364895
4341 9 0.576923 0.0625 0.364895
4340 9 0.538462 0.0416662 0.364895
4339 9 0.538462 0 0.364895
4711 9 0.923077 0.25 0.364895
4699 9 0.846154 0.25 0.364895
4687 9 0.769231 0.25 0.364895
4558 9 0.961538 0.229166 0.364895
4557 9 0.961538 0.1875 0.364895
4556 9 0.923077 0.166666 0.364895
4555 9 0.923077 0.125 0.364895
4546 9 0.884615 0.229166 0.364895
4545 9 0.884615 0.1875 0.364895
4544 9 0.846154 0.166666 0.364895
4543 9 0.846154 0.125 0.364895
4534 9 0.807692 0.229166 0.364895
4533 9 0.807692 0.1875 0.364895
4532 9 0.769231 0.166666 0.364895
4531 9 0.769231 0.125 0.364895
4402 9 0.961538 0.104166 0.364895
4401 9 0.961538 0.0625 0.364895
4400 9 0.923077 0.0416662 0.364895
4399 9 0.923077 0 0.364895
4390 9 0.884615 0.104166 0.364895
4389 9 0.884615 0.0625 0.364895
4388 9 0.846154 0.0416662 0.364895
4387 9 0.846154 0 0.364895
4378 9 0.807692 0.104166 0.364895
4377 9 0.807692 0.0625 0.364895
4376 9 0.769231 0.0416662 0.364895
4375 9 0.769231 0 0.364895
4760 9 0.230769 0.416666 0.364895
4759 9 0.230769 0.375 0.364895
4750 9 0.192308 0.479166 0.364895
4749 9 0.192308 0.4375 0.364895
4748 9 0.153846 0.416666 0.364895
4747 9 0.153846 0.375 0.364895
4738 9 0.115385 0.479166 0.364895
4737 9 0.115385 0.4375 0.364895
4736 9 0.0769231 0.416666 0.364895
4735 9 0.0769231 0.375 0.364895
4726 9 0.0384615 0.479166 0.364895
4725 9 0.0384615 0.4375 0.364895
4724 9 0 0.416666 0.364895
4723 9 0 0.375 0.364895
4604 9 0.230769 0.291666 0.364895
4594 9 0.192308 0.354166 0.364895
4593 9 0.192308 0.3125 0.364895
4592 9 0.153846 0.291666 0.364895
4582 9 0.115385 0.354166 0.364895
4581 9 0.115385 0.3125 0.364895
4580 9 0.0769231 0.291666 0.364895
4570 9 0.0384615 0.354166 0.364895
4569 9 0.0384615 0.3125 0.364895
4568 9 0 0.291666 0.364895
4798 9 0.5 0.479166 0.364895
4797 9 0.5 0.4375 0.364895
4796 9 0.461538 0.416666 0.364895
4795 9 0.461538 0.375 0.364895
4786 9 0.423077 0.479166 0.364895
4785 9 0.423077 0.4375 0.364895
4784 9 0.384615 0.416666 0.364895
4783 9 0.384615 0.375 0.364895
4774 9 0.346154 0.479166 0.364895
4773 9 0.346154 0.4375 0.364895
4772 9 0.307692 0.416666 0.364895
4771 9 0.307692 0.375 0.364895
4762 9 0.269231 0.479166 0.364895
4761 9 0.269231 0.4375 0.364895
4642 9 0.5 0.354166 0.364895
4641 9 0.5 0.3125 0.364895
4640 9 0.461538 0.291666 0.364895
4630 9 0.423077 0.354166 0.364895
4629 9 0.423077 0.3125 0.364895
4628 9 0.384615 0.291666 0.364895
4618 9 0.346154 0.354166 0.364895
4617 9 0.346154 0.3125 0.364895
4616 9 0.307692 0.291666 0.364895
4606 9 0.269231 0.354166 0.364895
4605 9 0.269231 0.3125 0.364895
4834 9 0.730769 0.479166 0.364895
4833 9 0.730769 0.4375 0.364895
4832 9 0.692308 0.416666 0.364895
4831 9 0.692308 0.375 0.364895
4822 9 0.653846 0.479166 0.364895
4821 9 0.653846 0.4375 0.364895
4820 9 0.615385 0.416666 0.364895
4819 9 0.615385 0.375 0.364895
4810 9 0.576923 0.479166 0.364895
4809 9 0.576923 0.4375 0.364895
4808 9 0.538462 0.416666 0.364895
4807 9 0.538462 0.375 0.364895
4678 9 0.730769 0.354166 0.364895
4677 9 0.730769 0.3125 0.364895
4676 9 0.692308 0.291666 0.364895
4666 9 0.653846 0.354166 0.364895
4665 9 0.653846 0.3125 0.364895
4664 9 0.615385 0.291666 0.364895
4654 9 0.576923 0.354166 0.364895
4653 9 0.576923 0.3125 0.364895
4652 9 0.538462 0.291666 0.364895
4870 9 0.961538 0.479166 0.364895
4869 9 0.961538 0.4375 0.364895
4868 9 0.923077 0.416666 0.364895
4867 9 0.923077 0.375 0.364895
4858 9 0.884615 0.479166 0.364895
4857 9 0.884615 0.4375 0.364895
4856 9 0.846154 0.416666 0.364895
4855 9 0.846154 0.375 0.364895
4846 9 0.807692 0.479166 0.364895
4845 9 0.807692 0.4375 0.364895
4844 9 0.769231 0.416666 0.364895
4843 9 0.769231 0.375 0.364895
4714 9 0.961538 0.354166 0.364895
4713 9 0.961538 0.3125 0.364895
4712 9 0.923077 0.291666 0.364895
4702 9 0.884615 0.354166 0.364895
4701 9 0.884615 0.3125 0.364895
4700 9 0.846154 0.291666 0.364895
4690 9 0.807692 0.354166 0.364895
4689 9 0.807692 0.3125 0.364895
4688 9 0.769231 0.291666 0.364895
4879 9 0 0.5 0.364895
4880 9 0 0.541666 0.364895
4881 9 0.0384615 0.5625 0.364895
4882 9 0.0384615 0.604166 0.364895
4891 9 0.0769231 0.5 0.364895
4892 9 0.0769231 0.541666 0.364895
4893 9 0.115385 0.5625 0.364895
4894 9 0.115385 0.604166 0.364895
4903 9 0.153846 0.5 0.364895
4904 9 0.153846 0.541666 0.364895
4905 9 0.192308 0.5625 0.364895
4906 9 0.192308 0.604166 0.364895
4915 9 0.230769 0.5 0.364895
4916 9 0.230769 0.541666 0.364895
5035 9 0 0.625 0.364895
5036 9 0 0.666666 0.364895
5037 9 0.0384615 0.6875 0.364895
5038 9 0.0384615 0.729166 0.364895
5047 9 0.0769231 0.625 0.364895
5048 9 0.0769231 0.666666 0.364895
5049 9 0.115385 0.6875 0.364895
5050 9 0.115385 0.729166 0.364895
5059 9 0.153846 0.625 0.364895
5060 9 0.153846 0.666666 0.364895
5061 9 0.192308 0.6875 0.364895
5062 9 0.192308 0.729166 0.364895
5071 9 0.230769 0.625 0.364895
5072 9 0.230769 0.666666 0.364895
4917 9 0.269231 0.5625 0.364895
4918 9 0.269231 0.604166 0.364895
4927 9 0.307692 0.5 0.364895
4928 9 0.307692 0.541666 0.364895
4929 9 0.346154 0.5625 0.364895
4930 9 0.346154 0.604166 0.364895
4939 9 0.384615 0.5 0.364895
4940 9 0.384615 0.541666 0.364895
4941 9 0.423077 0.5625 0.364895
4942 9 0.423077 0.604166 0.364895
4951 9 0.461538 0.5 0.364895
4952 9 0.461538 0.541666 0.364895
4953 9 0.5 0.5625 0.364895
4954 9 0.5 0.604166 0.364895
5073 9 0.269231 0.6875 0.364895
5074 9 0.269231 0.729166 0.364895
5083 9 0.307692 0.625 0.364895
5084 9 0.307692 0.666666 0.364895
5085 9 0.346154 0.6875 0.364895
5086 9 0.346154 0.729166 0.364895
5095 9 0.384615 0.625 0.364895
5096 9 0.384615 0.666666 0.364895
5097 9 0.423077 0.6875 0.364895
5098 9 0.423077 0.729166 0.364895
5107 9 0.461538 0.625 0.364895
5108 9 0.461538 0.666666 0.364895
5109 9 0.5 0.6875 0.364895
5110 9 0.5 0.729166 0.364895
4963 9 0.538462 0.5 0.364895
4964 9 0.538462 0.541666 0.364895
4965 9 0.576923 0.5625 0.364895
4966 9 0.576923 0.604166 0.364895
4975 9 0.615385 0.5 0.364895
4976 9 0.615385 0.541666 0.364895
4977 9 0.653846 0.5625 0.364895
4978 9 0.653846 0.604166 0.364895
4987 9 0.692308 0.5 0.364895
4988 9 0.692308 0.541666 0.364895
4989 9 0.730769 0.5625 0.364895
4990 9 0.730769 0.604166 0.364895
5119 9 0.538462 0.625 0.364895
5120 9 0.538462 0.666666 0.364895
5121 9 0.576923 0.6875 0.364895
5122 9 0.576923 0.729166 0.364895
5131 9 0.615385 0.625 0.364895
5132 9 0.615385 0.666666 0.364895
5133 9 0.653846 0.6875 0.364895
5134 9 0.653846 0.729166 0.364895
5143 9 0.692308 0.625 0.364895
5144 9 0.692308 0.666666 0.364895
5145 9 0.730769 0.6875 0.364895
5146 9 0.730769 0.729166 0.364895
4999 9 0.769231 0.5 0.364895
5000 9 0.769231 0.541666 0.364895
5001 9 0.807692 0.5625 0.364895
5002 9 0.807692 0.604166 0.364895
5011 9 0.846154 0.5 0.364895
5012 9 0.846154 0.541666 0.364895
5013 9 0.884615 0.5625 0.364895
5014 9 0.884615 0.604166 0.364895
5023 9 0.923077 0.5 0.364895
5024 9 0.923077 0.541666 0.364895
5025 9 0.961538 0.5625 0.364895
5026 9 0.961538 0.604166 0.364895
5155 9 0.769231 0.625 0.364895
5156 9 0.769231 0.666666 0.364895
5157 9 0.807692 0.6875 0.364895
5158 9 0.807692 0.729166 0.364895
5167 9 0.846154 0.625 0.364895
5168 9 0.846154 0.666666 0.364895
5169 9 0.884615 0.6875 0.364895
5170 9 0.884615 0.729166 0.364895
5179 9 0.923077 0.625 0.364895
5180 9 0.923077 0.666666 0.364895
5181 9 0.961538 0.6875 0.364895
5182 9 0.961538 0.729166 0.364895
5191 9 0 0.75 0.364895
5192 9 0 0.791666 0.364895
5193 9 0.0384615 0.8125 0.364895
5194 9 0.0384615 0.854166 0.364895
5203 9 0.0769231 0.75 0.364895
5204 9 0.0769231 0.791666 0.364895
5205 9 0.115385 0.8125 0.364895
5206 9 0.115385 0.854166 0.364895
5215 9 0.153846 0.75 0.364895
5216 9 0.153846 0.791666 0.364895
5217 9 0.192308 0.8125 0.364895
5218 9 0.192308 0.854166 0.364895
5227 9 0.230769 0.75 0.364895
5228 9 0.230769 0.791666 0.364895
5347 9 0 0.875 0.364895
5348 9 0 0.916666 0.364895
5349 9 0.0384615 0.9375 0.364895
5350 9 0.0384615 0.979166 0.364895
5359 9 0.0769231 0.875 0.364895
5360 9 0.0769231 0.916666 0.364895
5361 9 0.115385 0.9375 0.364895
5362 9 0.115385 0.979166 0.364895
5371 9 0.153846 0.875 0.364895
5372 9 0.153846 0.916666 0.364895
5373 9 0.192308 0.9375 0.364895
5374 9 0.192308 0.979166 0.364895
5383 9 0.230769 0.875 0.364895
5384 9 0.230769 0.916666 0.364895
5229 9 0.269231 0.8125 0.364895
5230 9 0.269231 0.854166 0.364895
5239 9 0.307692 0.75 0.364895
5240 9 0.307692 0.791666 0.364895
5241 9 0.346154 0.8125 0.364895
5242 9 0.346154 0.854166 0.364895
5251 9 0.384615 0.75 0.364895
5252 9 0.384615 0.791666 0.364895
5253 9 0.423077 0.8125 0.364895
5254 9 0.423077 0.854166 0.364895
5263 9 0.461538 0.75 0.364895
5264 9 0.461538 0.791666 0.364895
5265 9 0.5 0.8125 0.364895
5266 9 0.5 0.854166 0.364895
5385 9 0.269231 0.9375 0.364895
5386 9 0.269231 0.979166 0.364895
5395 9 0.307692 0.875 0.364895
5396 9 0.307692 0.916666 0.364895
5397 9 0.346154 0.9375 0.364895
5398 9 0.346154 0.979166 0.364895
5407 9 0.384615 0.875 0.364895
5408 9 0.384615 0.916666 0.364895
5409 9 0.423077 0.9375 0.364895
5410 9 0.423077 0.979166 0.364895
5419 9 0.461538 0.875 0.364895
5420 9 0.461538 0.916666 0.364895
5421 9 0.5 0.9375 0.364895
5422 9 0.5 0.979166 0.364895
5275 9 0.538462 0.75 0.364895
5276 9 0.538462 0.791666 0.364895
5277 9 0.576923 0.8125 0.364895
5278 9 0.576923 0.854166 0.364895
5287 9 0.615385 0.75 0.364895
5288 9 0.615385 0.791666 0.364895
5289 9 0.653846 0.8125 0.364895
5290 9 0.653846 0.854166 0.364895
5299 9 0.692308 0.75 0.364895
5300 9 0.692308 0.791666 0.364895
5301 9 0.730769 0.8125 0.364895
5302 9 0.730769 0.854166 0.364895
5431 9 0.538462 0.875 0.364895
5432 9 0.538462 0.916666 0.364895
5433 9 0.576923 0.9375 0.364895
5434 9 0.576923 0.979166 0.364895
5443 9 0.615385 0.875 0.364895
5444 9 0.615385 0.916666 0.364895
5445 9 0.653846 0.9375 0.364895
5446 9 0.653846 0.979166 0.364895
5455 9 0.692308 0.875 0.364895
5456 9 0.692308 0.916666 0.364895
5457 9 0.730769 0.9375 0.364895
5458 9 0.730769 0.979166 0.364895
5311 9 0.769231 0.75 0.364895
5312 9 0.769231 0.791666 0.364895
5313 9 0.807692 0.8125 0.364895
5314 9 0.807692 0.854166 0.364895
5323 9 0.846154 0.75 0.364895
5324 9 0.846154 0.791666 0.364895
5325 9 0.884615 0.8125 0.364895
5326 9 0.884615 0.854166 0.364895
5335 9 0.923077 0.75 0.364895
5336 9 0.923077 0.791666 0.364895
5337 9 0.961538 0.8125 0.364895
5338 9 0.961538 0.854166 0.364895
5467 9 0.769231 0.875 0.364895
5468 9 0.769231 0.916666 0.364895
5469 9 0.807692 0.9375 0.364895
5470 9 0.807692 0.979166 0.364895
5479 9 0.846154 0.875 0.364895
5480 9 0.846154 0.916666 0.364895
5481 9 0.884615 0.9375 0.364895
5482 9 0.884615 0.979166 0.364895
5491 9 0.923077 0.875 0.364895
5492 9 0.923077 0.916666 0.364895
5493 9 0.961538 0.9375 0.364895
5494 9 0.961538 0.979166 0.364895
5495 9 0 0 0.372477
5375 9 0.230769 0 0.372477
5363 9 0.153846 0 0.372477
5351 9 0.0769231 0 0.372477
4560 9 0 0.208334 0.372477
4559 9 0 0.25 0.372477
4442 9 0.192308 0.145832 0.372477
4441 9 0.192308 0.1875 0.372477
4440 9 0.230769 0.208334 0.372477
4439 9 0.230769 0.25 0.372477
4430 9 0.115385 0.145832 0.372477
4429 9 0.115385 0.1875 0.372477
4428 9 0.153846 0.208334 0.372477
4427 9 0.153846 0.25 0.372477
4418 9 0.0384615 0.145832 0.372477
4417 9 0.0384615 0.1875 0.372477
4416 9 0.0769231 0.208334 0.372477
4415 9 0.0769231 0.25 0.372477
4404 9 0 0.0833337 0.372477
4403 9 0 0.125 0.372477
4286 9 0.192308 0.0208325 0.372477
4285 9 0.192308 0.0625 0.372477
4284 9 0.230769 0.0833337 0.372477
4283 9 0.230769 0.125 0.372477
4274 9 0.115385 0.0208325 0.372477
4273 9 0.115385 0.0625 0.372477
4272 9 0.153846 0.0833337 0.372477
4271 9 0.153846 0.125 0.372477
4262 9 0.0384615 0.0208325 0.372477
4261 9 0.0384615 0.0625 0.372477
4260 9 0.0769231 0.0833337 0.372477
4259 9 0.0769231 0.125 0.372477
4611 9 0.230769 0.25 0.380057
4599 9 0.153846 0.25 0.380057
4587 9 0.0769231 0.25 0.380057
4575 9 0 0.25 0.380057
4456 9 0.230769 0.166662 0.380057
4455 9 0.230769 0.125 0.380057
4446 9 0.192308 0.229166 0.380057
4445 9 0.192308 0.1875 0.380057
4444 9 0.153846 0.166662 0.380057
4443 9 0.153846 0.125 0.380057
4434 9 0.115385 0.229166 0.380057
4433 9 0.115385 0.1875 0.380057
4432 9 0.0769231 0.166662 0.380057
4431 9 0.0769231 0.125 0.380057
4422 9 0.0384615 0.229166 0.380057
4421 9 0.0384615 0.1875 0.380057
4420 9 0 0.166662 0.380057
4419 9 0 0.125 0.380057
4300 9 0.230769 0.0416625 0.380057
4263 9 0 0 0.380057
4264 9 0 0.0416625 0.380057
4265 9 0.0384615 0.0625 0.380057
4266 9 0.0384615 0.104166 0.380057
4275 9 0.0769231 0 0.380057
4276 9 0.0769231 0.0416625 0.380057
4277 9 0.115385 0.0625 0.380057
4278 9 0.115385 0.104166 0.380057
4287 9 0.153846 0 0.380057
4288 9 0.153846 0.0416625 0.380057
4289 9 0.192308 0.0625 0.380057
4290 9 0.192308 0.104166 0.380057
4299 9 0.230769 0 0.380057
5411 9 0.461538 0 0.372477
5399 9 0.384615 0 0.372477
5387 9 0.307692 0 0.372477
4490 9 0.5 0.145832 0.372477
4489 9 0.5 0.1875 0.372477
4478 9 0.423077 0.145832 0.372477
4477 9 0.423077 0.1875 0.372477
4476 9 0.461538 0.208334 0.372477
4475 9 0.461538 0.25 0.372477
4466 9 0.346154 0.145832 0.372477
4465 9 0.346154 0.1875 0.372477
4464 9 0.384615 0.208334 0.372477
4463 9 0.384615 0.25 0.372477
4454 9 0.269231 0.145832 0.372477
4453 9 0.269231 0.1875 0.372477
4452 9 0.307692 0.208334 0.372477
4451 9 0.307692 0.25 0.372477
4334 9 0.5 0.0208325 0.372477
4333 9 0.5 0.0625 0.372477
4322 9 0.423077 0.0208325 0.372477
4321 9 0.423077 0.0625 0.372477
4320 9 0.461538 0.0833337 0.372477
4319 9 0.461538 0.125 0.372477
4310 9 0.346154 0.0208325 0.372477
4309 9 0.346154 0.0625 0.372477
4308 9 0.384615 0.0833337 0.372477
4307 9 0.384615 0.125 0.372477
4298 9 0.269231 0.0208325 0.372477
4297 9 0.269231 0.0625 0.372477
4296 9 0.307692 0.0833337 0.372477
4295 9 0.307692 0.125 0.372477
4301 9 0.269231 0.0625 0.380057
4302 9 0.269231 0.104166 0.380057
4311 9 0.307692 0 0.380057
4312 9 0.307692 0.0416625 0.380057
4313 9 0.346154 0.0625 0.380057
4314 9 0.346154 0.104166 0.380057
4323 9 0.384615 0 0.380057
4324 9 0.384615 0.0416625 0.380057
4325 9 0.423077 0.0625 0.380057
4326 9 0.423077 0.104166 0.380057
4335 9 0.461538 0 0.380057
4336 9 0.461538 0.0416625 0.380057
4337 9 0.5 0.0625 0.380057
4338 9 0.5 0.104166 0.380057
4457 9 0.269231 0.1875 0.380057
4458 9 0.269231 0.229166 0.380057
4467 9 0.307692 0.125 0.380057
4468 9 0.307692 0.166662 0.380057
4469 9 0.346154 0.1875 0.380057
4470 9 0.346154 0.229166 0.380057
4479 9 0.384615 0.125 0.380057
4480 9 0.384615 0.166662 0.380057
4481 9 0.423077 0.1875 0.380057
4482 9 0.423077 0.229166 0.380057
4491 9 0.461538 0.125 0.380057
4492 9 0.461538 0.166662 0.380057
4493 9 0.5 0.1875 0.380057
4494 9 0.5 0.229166 0.380057
4623 9 0.307692 0.25 0.380057
4635 9 0.384615 0.25 0.380057
4647 9 0.461538 0.25 0.380057
5447 9 0.692308 0 0.372477
5435 9 0.615385 0 0.372477
5423 9 0.538462 0 0.372477
4526 9 0.730769 0.145832 0.372477
4525 9 0.730769 0.1875 0.372477
4514 9 0.653846 0.145832 0.372477
4513 9 0.653846 0.1875 0.372477
4512 9 0.692308 0.208334 0.372477
4511 9 0.692308 0.25 0.372477
4502 9 0.576923 0.145832 0.372477
4501 9 0.576923 0.1875 0.372477
4500 9 0.615385 0.208334 0.372477
4499 9 0.615385 0.25 0.372477
4488 9 0.538462 0.208334 0.372477
4487 9 0.538462 0.25 0.372477
4370 9 0.730769 0.0208325 0.372477
4369 9 0.730769 0.0625 0.372477
4358 9 0.653846 0.0208325 0.372477
4357 9 0.653846 0.0625 0.372477
4356 9 0.692308 0.0833337 0.372477
4355 9 0.692308 0.125 0.372477
4346 9 0.576923 0.0208325 0.372477
4345 9 0.576923 0.0625 0.372477
4344 9 0.615385 0.0833337 0.372477
4343 9 0.615385 0.125 0.372477
4332 9 0.538462 0.0833337 0.372477
4331 9 0.538462 0.125 0.372477
4347 9 0.538462 0 0.380057
4348 9 0.538462 0.0416625 0.380057
4349 9 0.576923 0.0625 0.380057
4350 9 0.576923 0.104166 0.380057
4359 9 0.615385 0 0.380057
4360 9 0.615385 0.0416625 0.380057
4361 9 0.653846 0.0625 0.380057
4362 9 0.653846 0.104166 0.380057
4371 9 0.692308 0 0.380057
4372 9 0.692308 0.0416625 0.380057
4373 9 0.730769 0.0625 0.380057
4374 9 0.730769 0.104166 0.380057
4503 9 0.538462 0.125 0.380057
4504 9 0.538462 0.166662 0.380057
4505 9 0.576923 0.1875 0.380057
4506 9 0.576923 0.229166 0.380057
4515 9 0.615385 0.125 0.380057
4516 9 0.615385 0.166662 0.380057
4517 9 0.653846 0.1875 0.380057
4518 9 0.653846 0.229166 0.380057
4527 9 0.692308 0.125 0.380057
4528 9 0.692308 0.166662 0.380057
4529 9 0.730769 0.1875 0.380057
4530 9 0.730769 0.229166 0.380057
4659 9 0.538462 0.25 0.380057
4671 9 0.615385 0.25 0.380057
4683 9 0.692308 0.25 0.380057
5483 9 0.923077 0 0.372477
5471 9 0.846154 0 0.372477
5459 9 0.769231 0 0.372477
4562 9 0.961538 0.145832 0.372477
4561 9 0.961538 0.1875 0.372477
4550 9 0.884615 0.145832 0.372477
4549 9 0.884615 0.1875 0.372477
4548 9 0.923077 0.208334 0.372477
4547 9 0.923077 0.25 0.372477
4538 9 0.807692 0.145832 0.372477
4537 9 0.807692 0.1875 0.372477
4536 9 0.846154 0.208334 0.372477
4535 9 0.846154 0.25 0.372477
4524 9 0.769231 0.208334 0.372477
4523 9 0.769231 0.25 0.372477
4406 9 0.961538 0.0208325 0.372477
4405 9 0.961538 0.0625 0.372477
4394 9 0.884615 0.0208325 0.372477
4393 9 0.884615 0.0625 0.372477
4392 9 0.923077 0.0833337 0.372477
4391 9 0.923077 0.125 0.372477
4382 9 0.807692 0.0208325 0.372477
4381 9 0.807692 0.0625 0.372477
4380 9 0.846154 0.0833337 0.372477
4379 9 0.846154 0.125 0.372477
4368 9 0.769231 0.0833337 0.372477
4367 9 0.769231 0.125 0.372477
4383 9 0.769231 0 0.380057
4384 9 0.769231 0.0416625 0.380057
4385 9 0.807692 0.0625 0.380057
4386 9 0.807692 0.104166 0.380057
4395 9 0.846154 0 0.380057
4396 9 0.846154 0.0416625 0.380057
4397 9 0.884615 0.0625 0.380057
4398 9 0.884615 0.104166 0.380057
4407 9 0.923077 0 0.380057
4408 9 0.923077 0.0416625 0.380057
4409 9 0.961538 0.0625 0.380057
4410 9 0.961538 0.104166 0.380057
4539 9 0.769231 0.125 0.380057
4540 9 0.769231 0.166662 0.380057
4541 9 0.807692 0.1875 0.380057
4542 9 0.807692 0.229166 0.380057
4551 9 0.846154 0.125 0.380057
4552 9 0.846154 0.166662 0.380057
4553 9 0.884615 0.1875 0.380057
4554 9 0.884615 0.229166 0.380057
4563 9 0.923077 0.125 0.380057
4564 9 0.923077 0.166662 0.380057
4565 9 0.961538 0.1875 0.380057
4566 9 0.961538 0.229166 0.380057
4695 9 0.769231 0.25 0.380057
4707 9 0.846154 0.25 0.380057
4719 9 0.923077 0.25 0.380057
4872 9 0 0.458334 0.372477
4754 9 0.192308 0.395833 0.372477
4753 9 0.192308 0.4375 0.372477
4752 9 0.230769 0.458334 0.372477
4742 9 0.115385 0.395833 0.372477
4741 9 0.115385 0.4375 0.372477
4740 9 0.153846 0.458334 0.372477
4730 9 0.0384615 0.395833 0.372477
4729 9 0.0384615 0.4375 0.372477
4728 9 0.0769231 0.458334 0.372477
4716 9 0 0.333334 0.372477
4715 9 0 0.375 0.372477
4598 9 0.192308 0.270832 0.372477
4597 9 0.192308 0.3125 0.372477
4596 9 0.230769 0.333334 0.372477
4595 9 0.230769 0.375 0.372477
4586 9 0.115385 0.270832 0.372477
4585 9 0.115385 0.3125 0.372477
4584 9 0.153846 0.333334 0.372477
4583 9 0.153846 0.375 0.372477
4574 9 0.0384615 0.270832 0.372477
4573 9 0.0384615 0.3125 0.372477
4572 9 0.0769231 0.333334 0.372477
4571 9 0.0769231 0.375 0.372477
4576 9 0 0.291663 0.380057
4577 9 0.0384615 0.3125 0.380057
4578 9 0.0384615 0.354166 0.380057
4588 9 0.0769231 0.291663 0.380057
4589 9 0.115385 0.3125 0.380057
4590 9 0.115385 0.354166 0.380057
4600 9 0.153846 0.291663 0.380057
4601 9 0.192308 0.3125 0.380057
4602 9 0.192308 0.354166 0.380057
4612 9 0.230769 0.291663 0.380057
4731 9 0 0.375 0.380057
4732 9 0 0.416663 0.380057
4733 9 0.0384615 0.4375 0.380057
4734 9 0.0384615 0.479166 0.380057
4743 9 0.0769231 0.375 0.380057
4744 9 0.0769231 0.416663 0.380057
4745 9 0.115385 0.4375 0.380057
4746 9 0.115385 0.479166 0.380057
4755 9 0.153846 0.375 0.380057
4756 9 0.153846 0.416663 0.380057
4757 9 0.192308 0.4375 0.380057
4758 9 0.192308 0.479166 0.380057
4767 9 0.230769 0.375 0.380057
4768 9 0.230769 0.416663 0.380057
4802 9 0.5 0.395833 0.372477
4801 9 0.5 0.4375 0.372477
4790 9 0.423077 0.395833 0.372477
4789 9 0.423077 0.4375 0.372477
4788 9 0.461538 0.458334 0.372477
4778 9 0.346154 0.395833 0.372477
4777 9 0.346154 0.4375 0.372477
4776 9 0.384615 0.458334 0.372477
4766 9 0.269231 0.395833 0.372477
4765 9 0.269231 0.4375 0.372477
4764 9 0.307692 0.458334 0.372477
4646 9 0.5 0.270832 0.372477
4645 9 0.5 0.3125 0.372477
4634 9 0.423077 0.270832 0.372477
4633 9 0.423077 0.3125 0.372477
4632 9 0.461538 0.333334 0.372477
4631 9 0.461538 0.375 0.372477
4622 9 0.346154 0.270832 0.372477
4621 9 0.346154 0.3125 0.372477
4620 9 0.384615 0.333334 0.372477
4619 9 0.384615 0.375 0.372477
4610 9 0.269231 0.270832 0.372477
4609 9 0.269231 0.3125 0.372477
4608 9 0.307692 0.333334 0.372477
4607 9 0.307692 0.375 0.372477
4613 9 0.269231 0.3125 0.380057
4614 9 0.269231 0.354166 0.380057
4624 9 0.307692 0.291663 0.380057
4625 9 0.346154 0.3125 0.380057
4626 9 0.346154 0.354166 0.380057
4636 9 0.384615 0.291663 0.380057
4637 9 0.423077 0.3125 0.380057
4638 9 0.423077 0.354166 0.380057
4648 9 0.461538 0.291663 0.380057
4649 9 0.5 0.3125 0.380057
4650 9 0.5 0.354166 0.380057
4769 9 0.269231 0.4375 0.380057
4770 9 0.269231 0.479166 0.380057
4779 9 0.307692 0.375 0.380057
4780 9 0.307692 0.416663 0.380057
4781 9 0.346154 0.4375 0.380057
4782 9 0.346154 0.479166 0.380057
4791 9 0.384615 0.375 0.380057
4792 9 0.384615 0.416663 0.380057
4793 9 0.423077 0.4375 0.380057
4794 9 0.423077 0.479166 0.380057
4803 9 0.461538 0.375 0.380057
4804 9 0.461538 0.416663 0.380057
4805 9 0.5 0.4375 0.380057
4806 9 0.5 0.479166 0.380057
4838 9 0.730769 0.395833 0.372477
4837 9 0.730769 0.4375 0.372477
4826 9 0.653846 0.395833 0.372477
4825 9 0.653846 0.4375 0.372477
4824 9 0.692308 0.458334 0.372477
4814 9 0.576923 0.395833 0.372477
4813 9 0.576923 0.4375 0.372477
4812 9 0.615385 0.458334 0.372477
4800 9 0.538462 0.458334 0.372477
4682 9 0.730769 0.270832 0.372477
4681 9 0.730769 0.3125 0.372477
4670 9 0.653846 0.270832 0.372477
4669 9 0.653846 0.3125 0.372477
4668 9 0.692308 0.333334 0.372477
4667 9 0.692308 0.375 0.372477
4658 9 0.576923 0.270832 0.372477
4657 9 0.576923 0.3125 0.372477
4656 9 0.615385 0.333334 0.372477
4655 9 0.615385 0.375 0.372477
4644 9 0.538462 0.333334 0.372477
4643 9 0.538462 0.375 0.372477
4660 9 0.538462 0.291663 0.380057
4661 9 0.576923 0.3125 0.380057
4662 9 0.576923 0.354166 0.380057
4672 9 0.615385 0.291663 0.380057
4673 9 0.653846 0.3125 0.380057
4674 9 0.653846 0.354166 0.380057
4684 9 0.692308 0.291663 0.380057
4685 9 0.730769 0.3125 0.380057
4686 9 0.730769 0.354166 0.380057
4815 9 0.538462 0.375 0.380057
4816 9 0.538462 0.416663 0.380057
4817 9 0.576923 0.4375 0.380057
4818 9 0.576923 0.479166 0.380057
4827 9 0.615385 0.375 0.380057
4828 9 0.615385 0.416663 0.380057
4829 9 0.653846 0.4375 0.380057
4830 9 0.653846 0.479166 0.380057
4839 9 0.692308 0.375 0.380057
4840 9 0.692308 0.416663 0.380057
4841 9 0.730769 0.4375 0.380057
4842 9 0.730769 0.479166 0.380057
4874 9 0.961538 0.395833 0.372477
4873 9 0.961538 0.4375 0.372477
4862 9 0.884615 0.395833 0.372477
4861 9 0.884615 0.4375 0.372477
4860 9 0.923077 0.458334 0.372477
4850 9 0.807692 0.395833 0.372477
4849 9 0.807692 0.4375 0.372477
4848 9 0.846154 0.458334 0.372477
4836 9 0.769231 0.458334 0.372477
4718 9 0.961538 0.270832 0.372477
4717 9 0.961538 0.3125 0.372477
4706 9 0.884615 0.270832 0.372477
4705 9 0.884615 0.3125 0.372477
4704 9 0.923077 0.333334 0.372477
4703 9 0.923077 0.375 0.372477
4694 9 0.807692 0.270832 0.372477
4693 9 0.807692 0.3125 0.372477
4692 9 0.846154 0.333334 0.372477
4691 9 0.846154 0.375 0.372477
4680 9 0.769231 0.333334 0.372477
4679 9 0.769231 0.375 0.372477
4696 9 0.769231 0.291663 0.380057
4697 9 0.807692 0.3125 0.380057
4698 9 0.807692 0.354166 0.380057
4708 9 0.846154 0.291663 0.380057
4709 9 0.884615 0.3125 0.380057
4710 9 0.884615 0.354166 0.380057
4720 9 0.923077 0.291663 0.380057
4721 9 0.961538 0.3125 0.380057
4722 9 0.961538 0.354166 0.380057
4851 9 0.769231 0.375 0.380057
4852 9 0.769231 0.416663 0.380057
4853 9 0.807692 0.4375 0.380057
4854 9 0.807692 0.479166 0.380057
4863 9 0.846154 0.375 0.380057
4864 9 0.846154 0.416663 0.380057
4865 9 0.884615 0.4375 0.380057
4866 9 0.884615 0.479166 0.380057
4875 9 0.923077 0.375 0.380057
4876 9 0.923077 0.416663 0.380057
4877 9 0.961538 0.4375 0.380057
4878 9 0.961538 0.479166 0.380057
4727 9 0.0769231 0.5 0.372477
4739 9 0.153846 0.5 0.372477
4751 9 0.230769 0.5 0.372477
4871 9 0 0.5 0.372477
4883 9 0.0769231 0.625 0.372477
4884 9 0.0769231 0.583334 0.372477
4885 9 0.0384615 0.5625 0.372477
4886 9 0.0384615 0.520833 0.372477
4895 9 0.153846 0.625 0.372477
4896 9 0.153846 0.583334 0.372477
4897 9 0.115385 0.5625 0.372477
4898 9 0.115385 0.520833 0.372477
4907 9 0.230769 0.625 0.372477
4908 9 0.230769 0.583334 0.372477
4909 9 0.192308 0.5625 0.372477
4910 9 0.192308 0.520833 0.372477
5027 9 0 0.625 0.372477
5028 9 0 0.583334 0.372477
5040 9 0.0769231 0.708334 0.372477
5041 9 0.0384615 0.6875 0.372477
5042 9 0.0384615 0.645833 0.372477
5052 9 0.153846 0.708334 0.372477
5053 9 0.115385 0.6875 0.372477
5054 9 0.115385 0.645833 0.372477
5064 9 0.230769 0.708334 0.372477
5065 9 0.192308 0.6875 0.372477
5066 9 0.192308 0.645833 0.372477
5184 9 0 0.708334 0.372477
4887 9 0 0.5 0.380057
4888 9 0 0.541663 0.380057
4889 9 0.0384615 0.5625 0.380057
4890 9 0.0384615 0.604166 0.380057
4899 9 0.0769231 0.5 0.380057
4900 9 0.0769231 0.541663 0.380057
4901 9 0.115385 0.5625 0.380057
4902 9 0.115385 0.604166 0.380057
4911 9 0.153846 0.5 0.380057
4912 9 0.153846 0.541663 0.380057
4913 9 0.192308 0.5625 0.380057
4914 9 0.192308 0.604166 0.380057
4923 9 0.230769 0.5 0.380057
4924 9 0.230769 0.541663 0.380057
5043 9 0 0.625 0.380057
5044 9 0 0.666663 0.380057
5045 9 0.0384615 0.6875 0.380057
5046 9 0.0384615 0.729166 0.380057
5055 9 0.0769231 0.625 0.380057
5056 9 0.0769231 0.666663 0.380057
5057 9 0.115385 0.6875 0.380057
5058 9 0.115385 0.729166 0.380057
5067 9 0.153846 0.625 0.380057
5068 9 0.153846 0.666663 0.380057
5069 9 0.192308 0.6875 0.380057
5070 9 0.192308 0.729166 0.380057
5079 9 0.230769 0.625 0.380057
5080 9 0.230769 0.666663 0.380057
4763 9 0.307692 0.5 0.372477
4775 9 0.384615 0.5 0.372477
4787 9 0.461538 0.5 0.372477
4919 9 0.307692 0.625 0.372477
4920 9 0.307692 0.583334 0.372477
4921 9 0.269231 0.5625 0.372477
4922 9 0.269231 0.520833 0.372477
4931 9 0.384615 0.625 0.372477
4932 9 0.384615 0.583334 0.372477
4933 9 0.346154 0.5625 0.372477
4934 9 0.346154 0.520833 0.372477
4943 9 0.461538 0.625 0.372477
4944 9 0.461538 0.583334 0.372477
4945 9 0.423077 0.5625 0.372477
4946 9 0.423077 0.520833 0.372477
4957 9 0.5 0.5625 0.372477
4958 9 0.5 0.520833 0.372477
5076 9 0.307692 0.708334 0.372477
5077 9 0.269231 0.6875 0.372477
5078 9 0.269231 0.645833 0.372477
5088 9 0.384615 0.708334 0.372477
5089 9 0.346154 0.6875 0.372477
5090 9 0.346154 0.645833 0.372477
5100 9 0.461538 0.708334 0.372477
5101 9 0.423077 0.6875 0.372477
5102 9 0.423077 0.645833 0.372477
5113 9 0.5 0.6875 0.372477
5114 9 0.5 0.645833 0.372477
4925 9 0.269231 0.5625 0.380057
4926 9 0.269231 0.604166 0.380057
4935 9 0.307692 0.5 0.380057
4936 9 0.307692 0.541663 0.380057
4937 9 0.346154 0.5625 0.380057
4938 9 0.346154 0.604166 0.380057
4947 9 0.384615 0.5 0.380057
4948 9 0.384615 0.541663 0.380057
4949 9 0.423077 0.5625 0.380057
4950 9 0.423077 0.604166 0.380057
4959 9 0.461538 0.5 0.380057
4960 9 0.461538 0.541663 0.380057
4961 9 0.5 0.5625 0.380057
4962 9 0.5 0.604166 0.380057